# OOMMF: rectangular mesh v1.0
# Segment count: 1
# Begin: Segment
# Begin: Header
# Title: 
# Desc: 
# meshunit: m
# valueunit: A/m
# valuemultiplier: 1.0
# xmin: 0.0
# ymin: 0.0
# zmin: 0.0
# xmax: 1.0000000000000001E-7
# ymax: 1.0000000000000001E-7
# zmax: 1.0E-8
# ValueRangeMaxMag: 
# ValueRangeMinMag: 
# meshtype: rectangular
# xbase: 1.0E-9
# ybase: 1.0E-9
# zbase: 5.0E-9
# xstepsize: 2.0E-9
# ystepsize: 2.0E-9
# zstepsize: 1.0E-8
# xnodes: 50
# ynodes: 50
# znodes: 1
# End: Header
# Begin: Data Text
440149.9536869979 -667905.1485201643 13066.401554788828
459567.11591130873 -654698.6862309803 12949.757541757463
486698.44952482404 -634791.9128981304 12800.255828100762
516685.07894432964 -610638.7574880684 12523.459973978262
546904.4126331366 -583737.46956719 12088.426932309625
575907.6999514248 -555155.8394039944 11502.83062146576
602946.7161210681 -525679.2878356992 10795.548127459335
627703.6281030457 -495871.0063699638 10005.01413854197
650121.3027418023 -466109.60974447074 9171.882312760348
670292.7798871635 -436621.25679121073 8334.707505505117
688388.781685656 -407509.7789503654 7527.636359618639
704610.6332693024 -378784.7628247837 6779.301999824863
719160.3556297276 -350386.96031221544 6112.359093636186
732222.3024777534 -322210.7567955865 5543.28056235511
743952.5492260662 -294123.7419057187 5082.218749307747
754473.5038829282 -265983.70577950595 4732.884788206097
763872.1449209176 -237653.4536334709 4492.4592374914855
772200.986673831 -209013.63362898296 4351.68210825593
779481.2751498012 -179973.58758042485 4295.283956976247
785708.1366383686 -150479.92667286398 4302.986032087591
790857.4104048532 -120522.29697485348 4351.130845554316
794893.7499511524 -90135.64648009095 4414.920408219027
797779.3134771532 -59398.45058260636 4471.1359079883605
799482.1269029937 -28426.57402384818 4500.961223142295
799983.0402251518 2636.934288482219 4492.430264496519
799280.2627812328 33635.24476223941 4442.053370668912
797390.7656971891 64412.71625900546 4355.314568124771
794348.3434222513 94829.75160905652 4245.8817800117695
790198.676329607 124775.65461734588 4133.756372856078
784992.198466659 154178.15978747405 4042.6960100234087
778775.8196281255 183008.86155249854 3997.418642041318
771584.5475581366 211284.44603956988 4021.0485271560583
763433.8576410244 239064.13922436134 4133.079270864559
754313.3470143041 266444.12033924705 4348.017102384253
744181.9712590806 293549.5548697478 4674.66455715665
732964.9511762573 320524.89406525163 5115.919433091419
720552.4514158266 347522.70182056254 5668.904477882323
706800.2210317585 374691.1254628323 6325.191606072407
691532.7365265299 402159.76316123514 7071.011683492681
674549.8483405453 430023.5939948411 7887.376718986614
655638.6096155904 458324.6116737895 8750.080879931551
634592.8767775412 487030.9520693539 9629.769967298394
611244.461012627 516013.6826214592 10492.293782734561
585511.2965313437 545021.8692881891 11299.718217413834
557470.5334331387 573656.9542986901 12012.624131404467
527468.7107556532 601346.9379209739 12594.420464531104
496289.84244348004 627317.2301467113 13018.642344099831
465423.5397443163 650541.7407263903 13280.520492398264
437541.3532911853 669610.0514485848 13414.289364028795
417591.5937473916 682227.6096318283 13518.486881122439
427337.7605987356 -676188.2223248358 12325.84097074405
445678.54138996126 -664244.1710816972 12260.462002130995
472447.3945291254 -645480.7133511181 12169.96690105318
502506.0988064709 -622370.2794439559 11952.235236705148
533090.4472706014 -596389.6230190175 11575.516578719922
562679.4907577125 -568568.1694694429 11046.598879653153
590468.9908981939 -539665.0375014729 10393.174981814736
616090.4347867966 -510234.6522574393 9652.761260174693
639442.3267918808 -480660.9098984208 8865.686809698173
660581.6890374551 -451183.65831160423 8070.84759987912
679652.1737905904 -421923.67086835176 7303.329562588649
696836.2026109434 -392906.90620095603 6593.16239398232
712323.4537178008 -364087.5170134464 5964.665835358184
726290.5663556579 -335369.14358741825 5436.06035833024
738888.5906057406 -306624.29654893867 5019.107344040055
750235.8433079189 -277711.9247126481 4718.716822658741
760414.6941834494 -248493.35701475322 4532.591910780958
769471.4496082992 -218846.69579041732 4451.064964623991
777418.9085789109 -188679.5502162135 4457.3438483544205
784241.394401148 -157939.6352917808 4528.4557679700865
789902.0603876009 -126622.40400638807 4637.003241951549
794352.0247021131 -94774.79820791433 4753.78547081721
797540.5637663683 -62494.12679344473 4851.109517236766
799425.1858450873 -29921.570003492652 4906.310739624082
799980.1696079848 2769.522499651297 4904.893383514409
799202.1854640151 35389.48125303533 4842.661064264408
797112.0143695496 67750.263895471 4726.340001834464
793752.07048437 99683.20989772942 4572.555769021576
789180.2065439543 131054.16343874307 4405.433532895734
783460.9110435063 161774.25721929802 4253.300838578066
776655.313220588 191805.4787752969 4145.2090429161235
768811.3645361813 221161.05318924913 4107.835468616641
759955.2480702748 249901.3592510017 4163.120818427595
750084.6421971564 278126.4246318117 4326.830420635494
739164.0918624433 305966.0309372807 4607.951134359539
727122.527268322 333568.19894734176 5008.69144139031
713852.9232651169 361086.526890231 5524.85693911546
699214.2394345708 388666.52776158415 6146.346043675618
683036.1211399649 416430.8234157848 6857.589031328198
665127.3042830541 444462.97053905774 7637.860744622927
645289.3171798331 472789.7002163518 8461.471675599958
623337.8525641663 501361.61529103207 9297.97147022309
599135.2662171982 530032.7041816912 10112.629365846677
572639.1534282374 558539.4307085896 10867.580444424437
543974.3994825659 586480.2183506726 11524.156842442691
513541.01919066726 613294.7819626179 12047.075414211264
482181.3547516001 638237.4937929927 12411.391813613784
451459.64655070554 660321.9574473811 12613.486796723024
424189.9699072138 678160.6508958269 12688.617208566387
405571.38698165584 689455.920710244 12742.97686436577
407562.72923856444 -688306.7488349277 11244.609548770488
424604.59547868074 -677926.9683015868 11223.33051305888
450448.83092599135 -661037.3386956404 11202.123351968512
480198.67687084264 -639755.2374845449 11066.473809920128
511008.18493903807 -615430.3338673873 10776.78436205449
541247.4352584316 -589019.8608305862 10335.249067483564
570013.0230166212 -561239.4921383112 9766.578509566796
596848.2482410042 -532624.8576124187 9106.57042993443
621575.3180389982 -503560.9655466408 8395.116583644905
644188.3799059786 -474302.0898026626 7671.949096382531
664782.1263572193 -444989.98442842154 6974.111726043588
683502.9390286923 -415672.4754185767 6334.470659217265
700515.2085313156 -386322.4374264699 5780.740194708592
715978.232758368 -356856.70969906705 5334.693895605588
730030.6463495481 -327154.61486105045 5011.323735193193
742780.357304939 -297075.9646557322 4817.886031601873
754298.7401778504 -266478.5548133238 4752.934957499413
764618.446920711 -235235.06797815312 4805.561556528667
773734.6214064487 -203249.06318487515 4955.19439478765
781609.5543006693 -170469.2089997257 5172.3697583339645
788180.7151646926 -136900.6041174231 5420.778058390759
793371.8175942088 -102611.47724705833 5660.722960715042
797105.9481229475 -67733.59803576127 5853.816203711236
799319.1077298952 -32455.27285955968 5968.189130366123
799972.0252309244 2993.177801797953 5983.287940627253
799058.0554933556 38360.06060375445 5893.191126518312
796605.5631317978 73396.18766726281 5707.57596389197
792674.3045795027 107878.37112088682 5450.128778843175
787346.595449176 141628.97509849424 5154.8081576164905
780715.0542795354 174529.01272497943 4860.837226868484
772869.1488171604 206523.7251425488 4607.57635671196
763882.579508089 237621.08166332296 4430.154988309142
753802.9400583704 267884.5819555159 4356.410205130075
742644.3957270154 297422.08206787996 4405.291552581183
730383.5209043503 326372.2972840716 4586.49723450147
716958.1040378541 354890.20466178673 4900.988630954954
702268.7319919135 383131.9506243084 5341.954444075613
686183.087375444 411239.6005528801 5895.891536609524
668543.3012022757 439325.6607575688 6543.563057604221
649177.1676943676 467457.256571929 7260.731544740293
627914.6098204105 495639.9330030264 8018.70231627731
604611.4507136976 523801.31820538023 8784.800065113115
579183.5057683232 551775.1148648843 9523.090977120002
551655.4391510728 579286.0470214027 10195.694255626246
522231.47202835954 605935.9704836288 10765.189137010684
491400.7106675635 631189.297214333 11198.778392745218
460102.0285566461 654350.3983589576 11475.168213700636
429998.99166002194 674511.9743267738 11595.846720366791
403959.73003342835 690421.5251057509 11604.058857515747
386866.9215579984 700142.1474361622 11617.159193049009
383512.8205150122 -702009.7217013555 10013.347961866197
399374.1745156869 -693108.7509365198 10026.370486427018
424022.80118372245 -678309.1914420889 10065.032612414152
453056.803829053 -659271.8202757228 10009.969757106415
483731.99465277937 -637108.3560229321 9813.258123593658
514375.61813546444 -612640.2177872756 9470.322978577953
543998.0400764218 -586502.4381250553 9001.248045550827
572047.7512082771 -559187.0432393783 8439.254158684633
598256.9609832076 -531062.5192552408 7823.635818069871
622540.8968745571 -502385.3676246544 7195.423216393651
644929.1895098846 -473310.5227143548 6594.664964016252
665517.3280488438 -443903.1192095897 6058.615578201083
684431.4913148013 -414152.08040728146 5620.319467612496
701802.7421659739 -383985.3441281524 5307.21990348786
717748.0529599928 -353286.45264685166 5139.537755805536
732356.5666714567 -321912.34714145726 5128.353641678979
745680.2090886366 -289712.2977386374 5273.548380965925
757728.3699914957 -256547.8165779855 5561.934834144957
768466.8560042301 -222313.05954562686 5966.135972003565
777821.6075285313 -186954.56668831874 6444.909317777401
785687.601587174 -150488.37695166515 6945.582383610729
791942.8271578792 -113011.79364536007 7408.981727876691
796466.2053029521 -74706.81188081388 7776.63609283813
799157.07235997 -35832.75105626141 7999.228011600438
799952.7750869547 3292.625427539543 8044.640978565629
798840.6657180511 42321.66924875853 7903.613549498862
795861.6919953842 80910.67577646446 7591.42671968886
791104.7084581786 118753.04961873432 7145.170505359579
784692.9079237853 155606.0764420728 6617.343002878358
776765.5056942164 191307.4338422853 6067.529998926345
767458.4142457112 225780.27787413602 5554.144986966314
756887.1198370437 259028.1719756099 5127.7624514561885
745133.7912600654 291122.5419022751 4826.874636811734
732239.385656095 322185.68541236385 4676.131879024739
718200.5553738961 352371.9602004836 4686.568584369744
702970.71192805 381848.90554655564 4857.1086325330625
686464.5629942819 410779.26706284215 5176.630601440754
668565.7609385229 439304.1887167815 5626.106698638343
649137.6888619418 467527.60670144873 6180.44262106494
628037.9560842724 495501.71649153804 6809.895111453969
605137.6806724413 523213.55092804664 7481.146679670264
580347.2298055174 550572.9171491405 8158.171299248138
553650.9153707939 577402.0843346409 8803.233218215473
525154.4842347752 603427.5543947059 9378.394603092498
495151.86011506437 628273.5486716069 9848.018286820527
464222.7177916158 651454.9687182448 10182.927794928637
433381.7476280722 672363.5774117659 10367.284740471565
404314.7630420081 690232.7204460383 10409.803645893637
379750.3888984354 704047.0692469523 10361.776694376375
364015.1562535166 712310.3080249139 10343.650186471845
356965.1856049402 -715890.7182005862 8737.039560370069
371746.41680469475 -708327.3184566959 8775.620822293611
395071.8460186791 -695585.8970063565 8859.817676207933
423059.8365016659 -678926.8430871614 8872.23054731157
453190.62608743284 -659197.6303133222 8760.172131936502
483841.93498513475 -637043.569386433 8513.087174085666
513990.25154742564 -612982.5933361469 8146.261787231081
543014.1679692436 -587432.1022880545 7690.161643737584
570564.6057745547 -560717.7770180749 7183.674076365819
596477.1246594138 -533076.4982362571 6669.841542941035
620710.1580857649 -504658.84114558104 6193.036633504769
643299.508819839 -475533.53031947097 5796.852081492751
664323.5077005858 -445694.7192285396 5522.170604288062
683875.5401759985 -415072.3213918643 5404.957294478079
702041.9990791142 -383545.39765901316 5473.523873210658
718884.5469792623 -350958.68906482984 5745.144412199184
734426.2952469481 -317142.39929053653 6222.171814127108
748642.1166205417 -281935.3359956149 6888.217400392103
761454.0303942821 -245210.90621766436 7705.262371636182
772733.0223961384 -206904.55207323752 8612.922262625998
782308.679984021 -167039.7728613694 9531.185869594532
789987.2539670139 -125748.36914835828 10367.55642303398
795577.0779297372 -83279.55504432307 11028.544074372727
798917.9077259941 -39993.01515636127 11433.960530932627
799908.4912277887 3666.3148844120024 11530.992882267697
798525.8123286621 47209.52523715157 11304.325355059513
794830.845800929 90153.95126268386 10779.22237943896
788959.1839082765 132072.2311663378 10016.580331224444
781099.1492419709 172630.4762122263 9101.523839957748
771463.1182024758 211609.4936395487 8128.927046457823
760258.5813509328 248908.01401901655 7189.578525625454
747664.1319670934 284531.01798382023 6359.6835600260365
733813.1664375452 318568.3677603616 5694.894678801776
718785.7908854086 351168.97390089947 5228.631812132449
702607.9059840385 382514.5669062388 4973.58555339102
685255.8737463075 412795.50760451343 4925.078447763112
666665.2992236273 442189.6921590652 5065.07249135661
646742.9357848936 470844.7525005197 5366.009230447702
625381.344480041 498863.3113037813 5794.015133135244
602476.5568955196 526290.9514776425 6311.321896185894
577949.458952148 553106.7852257838 6878.010912889201
551772.1268992584 579216.6844845727 7453.347688616006
524001.09035474155 604449.2573135908 7997.039457842273
494820.6500682072 628554.5075224208 8470.852337509046
464601.58264090616 651204.426009515 8841.09456931885
433984.4803525737 671993.2864951002 9082.605277155893
404002.9360367418 690432.6611290561 9185.212024901422
376269.6187860866 705930.0222460355 9163.933123111794
353257.38923078956 717723.3956046983 9074.379070120232
338735.33885722194 724690.8071028055 9033.510390056257
329129.6593546843 -729121.2519361565 7474.443666338454
342874.34558405454 -722758.930126461 7530.741182626757
364789.1377415766 -711948.3295926198 7645.977768440056
391467.2184538287 -697634.5678534509 7708.8658018655515
420662.44626953127 -680429.5248258746 7666.0318136599035
450874.1561407175 -660799.6619896619 7503.468447622403
481105.0198715566 -639128.8157250908 7233.032851573322
510706.1366357853 -615736.8445878825 6883.329100679763
539274.0330300294 -590881.8391959289 6493.797653405258
566579.6154592338 -564756.7589630507 6110.85522798636
592516.6333587733 -537485.4144933574 5785.187990785786
617062.0385712573 -509120.2424631904 5569.494457007091
640243.7286120608 -479643.139367597 5516.052077527006
662113.0373861709 -448970.08396832645 5673.572484164413
682720.4959670671 -416960.0962460154 6082.970080130305
702094.1512398904 -383429.1919857231 6771.8186562733035
720220.4894463905 -348170.1032298225 7747.631801804651
737028.871738211 -310978.4701741641 8990.734810691667
752381.3862440928 -271685.640533827 10448.079303934528
766070.974690765 -230196.73839621854 12030.102579954008
777831.0431712643 -186530.29144525796 13613.179365964927
787358.8915018213 -140852.68503368637 15049.820325316958
794352.6209703311 -93498.06907811946 16187.175053993535
798556.7611010391 -44964.1296862438 16891.605648265682
799807.157874351 4122.038015632407 17073.927947329496
798063.2005713851 53065.70805654603 16708.037653016672
793417.5334815216 101182.09948308839 15836.676049384861
786080.0611229544 147871.8300818049 14562.258519550865
776341.318098481 192677.14141419914 13026.012036143225
764526.0316643275 235309.1417427512 11382.210676563087
750948.5720044322 275645.966010647 9774.642017038343
735878.7057813511 313708.95412475086 8320.004778762868
719521.1825667022 349626.74593861646 7099.7438114557035
702008.5739537764 383596.17502162606 6159.269775166328
683404.530099946 415845.96189359034 5512.187920127184
663714.0979847503 446606.2072007852 5147.021082005854
642898.3059887736 476084.4699207401 5034.447045434213
620891.2152807122 504447.95867252635 5133.787915493733
597618.598190961 531810.935162389 5398.179135222259
573018.1207130397 558226.5171645958 5778.310201242575
547061.5457674366 583682.2036106845 6224.976362880258
519779.8399421922 608098.8001278401 6690.834981532149
491292.72215790837 631332.3995068702 7131.794134006772
461845.18347774184 653178.879110512 7508.553945071715
431855.2525328346 673379.8149651719 7788.816166302752
401980.2047505987 691627.5735190454 7950.756996924268
373212.79508448456 707565.1150623882 7988.587608313235
347026.03026101546 720770.5528720681 7921.138414022362
325599.4535390494 730701.0930978864 7804.38342383245
312209.50031609595 736522.3647310821 7748.171610683201
300821.9310156067 -741260.4197326079 6257.4721637039165
313536.2768454316 -735972.1491406178 6324.459759144701
333961.72498552094 -726930.4419367075 6457.463155020611
359112.62343293155 -714839.2644298429 6553.603628433172
387022.4842142939 -700121.8003339962 6562.119297968346
416351.8428063562 -683088.0630643102 6468.468968785808
446178.0028936594 -663992.2509882234 6283.339989048888
475869.008860067 -643049.1901423011 6035.351180198912
505002.85471650405 -620434.4169454954 5766.367806917116
533312.4334977731 -596277.8585566917 5528.442070702508
560645.2396080346 -570655.7227494366 5381.579523493309
586931.2612381487 -543583.1353893682 5391.614012516788
612155.1317555286 -515009.15184609283 5627.44881268692
636330.2349647532 -484815.3505731887 6156.940660606327
659473.3414879608 -452819.32259628916 7040.806071838441
681579.2143330595 -418784.5311979018 8324.122685489134
702595.4126065818 -382438.46385156445 10025.345432581533
722398.7353521743 -343501.21171203454 12123.725250245367
740776.4410671807 -301726.10844151693 14547.15933024964
757417.2870944309 -256952.23801368123 17163.93283233459
771918.8587072898 -209164.7790640562 19783.09306250633
783817.1878149605 -158553.41960113726 22168.202873318365
792640.7473371135 -105552.97129300718 24066.904912758942
797982.950985259 -50847.52834181139 25253.490815853464
799577.428426904 4675.443194702553 25574.91312110881
797353.9255239568 60020.21583768847 24985.81882455866
791455.4304769249 114207.0356590773 23559.596230656975
782210.0576999885 166392.3746388241 21470.987285963212
770067.8792535199 215953.904714217 18957.11952457799
755523.8039960461 262524.3527684401 16271.010996731642
739047.8396546231 305977.45788952964 13641.332973567169
721036.2189890034 346381.70696080517 11246.510079165084
701787.011596734 383940.4477672648 9204.505548789884
681496.6873656395 418933.0301531942 7575.048271985993
660271.1264856051 451665.21979032905 6369.361128403572
638144.711560171 482431.7380325791 5562.84519387865
615102.801260249 511490.4273547449 5107.50489527097
591104.8383147883 539046.0490604199 4942.379305502818
566106.8888183072 565241.5206032173 5001.38167104208
540083.4799312776 590154.725860185 5218.6444802555525
513049.14634012466 613799.6185425171 5531.88184344321
485080.6176125473 636130.6221111618 5884.388591511284
456341.024707568 657049.5431900073 6226.312122721013
427108.3486236481 676414.0764591546 6515.804162896751
397811.813907775 694046.5359449878 6720.614418978501
369082.3299107096 709740.5944717468 6820.726249718399
341827.2386920914 723261.8655742971 6812.686263670331
317347.49827310833 734333.3406970144 6716.403841507808
297534.1816749506 742583.3591841084 6585.240911540207
285237.9821121309 747393.3237624881 6520.211335560185
272577.5993354143 -752113.9682775629 5102.064515425942
284250.6171578733 -747779.928049933 5173.5723639628195
303113.94437302725 -740333.5138804904 5312.716065346309
326556.7659688144 -730295.3062627482 5426.255669224933
352878.34855073015 -717946.3546401205 5468.362009933671
380915.06979739264 -703472.9999203533 5426.599700184137
409849.6133432009 -687018.9707153935 5313.032993511172
439103.33239543793 -668701.4660124653 5158.762642459323
468271.2498810477 -648611.5395661533 5010.716162960585
497079.82287277543 -626807.2646500785 4929.77430077747
525356.736601718 -603303.7414923017 4989.469769740593
553006.4683667938 -578062.3031545457 5274.430409852258
579987.8092871172 -550980.5752410294 5877.651350246649
606290.7142957684 -521885.064246425 6895.612752461894
631910.8419829087 -490528.0715772332 8420.14127982004
656820.6933380176 -456591.479242665 10526.05747471398
680937.1996656265 -419700.9165237787 13254.085431859672
704087.2367504851 -379454.800684609 16589.673971178898
725975.2451456062 -335473.00105143216 20440.376741212047
746160.9012662771 -287468.0890008401 24617.214052408694
764058.6085072589 -235336.69432826457 28828.511383632325
778972.0362652367 -179258.2541388227 32696.254218060505
790172.2020075183 -119775.17906284444 35802.201818508045
797013.8281037454 -57818.7607377086 37761.73616465973
799064.3309898578 5350.259032363989 38308.87192306244
796203.6346471786 68291.536496994 37363.594815030636
788655.4920633696 129590.74710654713 35053.574748537605
776936.7484311484 188057.54991435946 31680.386005263357
761745.6677258019 242856.49354418178 27645.275263538926
743831.5290826048 293545.1723572808 23364.248936537977
723884.8740756668 340032.45230621466 19199.491219244344
702469.2212140495 382490.7951464893 15420.274807312753
679995.4040698477 421257.15282238956 12192.687966918638
656727.999343601 456745.4131055902 9589.70725074993
632810.398106046 489380.2846649107 7611.637810522836
608297.3979073646 519553.3894105535 6208.96538362115
583188.2808959329 547597.7621657784 5302.819691271628
557456.9320280429 573775.8443831422 4800.9724321563945
531077.9581225029 598276.6575794134 4609.055438823934
504049.11631577875 621218.94759146 4637.617345315482
476410.97577035724 642658.1392496424 4806.0609362817595
448265.0413615749 662595.6575019811 5044.536908673089
419792.0186399596 680989.4475399716 5294.660082766964
391272.4675327641 697764.6434084713 5509.86024062796
363113.3937522062 712823.0304668444 5656.015719517902
335886.551526701 726049.3005484239 5712.939405016967
310388.3941727462 737310.5267014208 5677.321387543747
287740.18238821486 746441.2815273656 5567.8246183847
269566.6669414922 753196.0513966763 5433.252663898352
258347.6747197902 757118.0191746814 5365.0729616980625
244733.19471711523 -761636.0977387893 4014.7259911590295
255349.43986876204 -758142.4486602931 4085.4740342347345
272587.53692737094 -752115.8282645924 4220.85130454326
294173.59979297186 -743937.5484311022 4337.881875502841
318650.9690677427 -733786.2253618861 4397.201535490554
345030.205569784 -721758.1866461758 4390.586942140576
372613.533084088 -707912.6869977603 4333.883962948977
400899.58023195254 -692287.0435066961 4263.327644235046
429529.0193904939 -674897.6919791872 4234.01258937438
458251.57367851515 -655733.8149835914 4319.618991254732
486903.84942151164 -634746.6941372474 4612.558980613657
515391.78203927504 -611836.59956642 5223.642156651215
543673.5888405236 -586838.6398621005 6280.092520427795
571740.1961608615 -559509.0836320098 7920.443624456692
599590.6077523106 -529514.2405258414 10284.560056532293
627199.9640509911 -496425.2621861596 13496.820286204755
654478.8000771891 -459724.1587054896 17640.80927997658
681223.8683222234 -418828.84921464155 22725.23473245316
707064.7740025818 -373147.347630463 28643.713464357446
731417.3407513362 -322170.9607392064 35136.102581539126
753463.2885270983 -265610.0246824967 41765.86680645246
772182.6358190737 -203559.18831865874 47933.63944618375
786462.258228646 -136652.27837495337 52945.927103345835
795282.0437735223 -66139.8964678678 56142.54132677939
797938.8868173604 6179.752830586259 57055.61812498852
794229.0103598475 78200.86998851306 55541.90342306409
784506.9571819612 147860.8813279046 51826.57528754834
769591.8717339128 213476.12547886372 46435.921565368044
750566.1329332474 273945.68012972345 40053.020259328274
728552.632879387 328782.74205214577 33361.19981633546
704543.4915598275 378012.3459765218 26928.326907060797
679309.7063129449 422008.2194267879 21151.49274289709
653383.1603453183 461330.97310174775 16253.585270907715
627085.1929045306 496601.0366670034 12311.42644640979
600576.1115308118 528414.5311030976 9296.105508396453
573907.9685726941 557296.2011875483 7112.506639095664
547071.4420491218 583678.9548481979 5631.603822138684
520033.6978988616 607900.2663283114 4713.729691389893
492767.44585510506 630208.2240866207 4223.576567738878
465272.80510744837 650772.5453850904 4038.6879622882966
437594.0116979323 669697.7310125595 4053.3939777933447
409832.98607063206 687036.7180960006 4179.894293596684
382161.8355578015 702803.9755381462 4347.805293342982
354836.9033044926 716987.0941717549 4503.2037951992415
328217.8963747251 729555.8785387023 4607.88335057712
302797.73647651274 740467.4243000248 4639.432636382774
279252.80773095804 749664.4424231955 4592.726934632923
258531.80245257926 757060.8996241693 4483.4563523946445
242020.320069373 762500.6237508637 4354.70470432496
231870.4923399189 765648.5396360628 4288.18553795205
217485.58872094835 -769864.2992908603 2996.560711091986
227031.768397716 -767103.1217975237 3062.134337252161
242594.29527388792 -762323.9866699234 3185.4745706241715
262204.83606441016 -755802.733916645 3294.1385157509358
284626.95836590737 -747647.129849703 3356.1583504752202
309034.1633071131 -737893.3089172186 3369.059849680471
334849.40108138253 -726542.9278477819 3354.4880104398985
361659.7525757643 -713576.1756745665 3356.318890853983
389169.68787457055 -698952.8691607354 3441.036411492052
417174.7532116832 -682606.4306817204 3699.4695204765144
445545.5661069012 -664432.9113885618 4249.092397263668
474216.1512155766 -644276.0495677823 5235.826545833517
503172.3285607956 -621909.0814316534 6833.901048741947
532436.501597867 -597014.2053907973 9241.77081620016
562045.1800755537 -569161.3602771446 12671.287279071454
592015.1594935639 -537789.773381395 17326.58582057002
622294.2077412902 -502198.97941123106 23368.8701044309
652693.536648845 -461560.9840874392 30864.302763187512
682803.9661607046 -414971.55886673427 39715.85485576161
711907.9827223428 -361563.32795908785 49588.14385872455
738916.775191868 -300699.5765125121 59847.840606376034
762380.5368743563 -232244.69924293974 69558.00937868118
780627.0636317468 -156856.6656367773 77571.73435594347
792053.7614611514 -76180.5553026805 82748.78820271042
795518.0448133704 7209.138562609951 84255.971286893
790675.6881225444 90196.14988759658 81832.82200556996
778094.4172270396 169737.77129498398 75882.58611780085
759077.4024052001 243449.34664295224 67334.33579455422
735295.1573985294 309921.3678788964 57356.57973018904
708404.9705649349 368710.0611465986 47066.851266738275
679790.6363343282 420107.5493596463 37340.83184934925
650456.2660106224 464844.5347718691 28743.773242965017
621037.7097084834 503832.97327519633 21552.219391904422
591875.3038995282 537990.0968028317 15820.252081460467
563103.2391535515 568140.4113252951 11454.91483612339
534730.5709127648 594974.4810657875 8281.51023700372
506704.57154960895 619042.2965048872 6091.98725234224
478956.0249316733 640764.5861057395 4676.684123455857
451429.6943253458 660451.7125774348 3842.7119145694246
424104.04583433515 678324.4375153845 3422.8316326528284
397003.9168120524 694533.7599084628 3278.1676745658096
370209.1509325331 709178.6175615755 3297.4170597283173
343861.91269101255 722320.886692538 3394.355341468241
318175.3906101312 733997.3681903551 3504.896535231579
293447.50561000855 744228.2663274944 3584.5572161596897
270084.93352246005 753021.3271595538 3606.872195223506
248646.54789079496 760369.7763720205 3563.3414029791247
229923.25988887704 766239.7045364436 3465.509194274947
215088.56187166632 770535.9739256791 3350.1400543097952
206001.27339415182 773015.3013789037 3289.254333529032
190936.17344311718 -776877.8492678093 2045.724302744593
199403.90497797058 -774747.48277113 2102.5268926003464
213254.37623563028 -771049.7389085506 2207.067150831341
230798.26463750514 -765980.9937571227 2297.442745088358
250995.83099609162 -759602.2461517573 2349.566723180623
273167.19001885405 -751913.6122133186 2367.71314194081
296848.1335434579 -742883.2460343088 2380.834579326261
321714.2685000151 -732457.4823553669 2442.53661949799
347540.73233531945 -720561.2420317896 2633.6000900673034
374181.10992957535 -707091.9989851456 3066.2588054562643
401556.52163596347 -691908.3986839651 3889.442404434083
429649.3178717526 -674813.6319666812 5293.936557426165
458497.17691662983 -655533.2575536619 7515.783429895648
488183.6002929404 -633687.1218585632 10835.312438194616
518819.97147306975 -608755.6824318275 15567.797135211387
550512.8457599198 -580042.9694005366 22039.97056084544
583308.4127346285 -546642.756117801 30544.93111700537
617105.5623766442 -507422.62332973914 41267.49588927475
651532.6008006384 -461053.4926949834 54175.150832396306
685795.7409367188 -406127.6129776731 68880.79333249766
718535.8050873933 -341415.84252605157 84507.51019665648
747772.4909572646 -266292.2952020723 99622.86526485748
771051.3741715022 -181269.87855784257 112343.2664464726
785882.7946321841 -88441.5011340302 120691.06834504267
790416.5339215868 8498.382839291571 123164.44451424199
784074.1502765996 104878.30269746127 119282.30586020791
767770.6924166819 196155.21935924224 109778.38486758817
743577.8594207177 278955.4354454421 96311.1209297619
714047.5285624849 351559.08955036907 80884.69267001511
681569.3846592454 413760.5320180316 65309.99953585382
647996.1995394098 466379.43307900766 50903.337644841595
614551.0518770241 510735.1030576751 38427.32285118788
581912.2128655345 548255.4848061894 28179.778172780203
550364.6231566317 580252.8659082709 20134.378135346895
519948.1087376156 607828.83253349 14073.896445233628
490573.41613575775 631857.4093067573 9692.1455336623
462101.97949364065 653006.417930582 6661.733222610297