# OOMMF: rectangular mesh v1.0
# Segment count: 1
# Begin: Segment
# Begin: Header
# Title: Oxs_RKEvolve::Total field
# Desc: Oxs vector field output
# Desc:  MIF source file: D:/Micromagnetic_Toolbox/refactored/microMagSim/tests/solver/core/fields/strayfield/ReferenceData/testCalculateStrayField/testCalculateStrayField.mif
# Desc:  Iteration: 0, State id: 288
# Desc:  Stage: 0, Stage iteration: 0
# Desc:  Stage simulation time: 0 s
# Desc:  Total simulation time: 0 s
# meshunit: m
# valueunit: A/m
# valuemultiplier: 1.0
# xmin: 0
# ymin: 0
# zmin: 0
# xmax: 1e-007
# ymax: 1e-007
# zmax: 2e-008
# ValueRangeMaxMag: 472634.0132952388
# ValueRangeMinMag: 88325.4684980801
# meshtype: rectangular
# xbase: 5e-009
# ybase: 5e-009
# zbase: 1e-008
# xstepsize: 1e-008
# ystepsize: 1e-008
# zstepsize: 2e-008
# xnodes: 10
# ynodes: 10
# znodes: 1
# End: Header
# Begin: Data Text
-232298.47847306065 76211.732983204129 0
-112405.50298907256 -654.60657713245018 0
-78000.908781400736 -41627.789118113054 0
-69776.158149888273 -85508.167461883626 0
-112955.84410080571 -194630.74153218995 0
310647.72986809211 -356203.45092568174 0
125224.7443876405 -326521.76246951602 0
56623.639303847667 -302854.73807054292 0
5256.4128001384925 -281544.31895098183 0
-76211.732983204245 -232298.47847305756 0
-281544.31895098049 -5256.4128001401696 0
-152124.64515789656 -34488.356588593058 0
-112146.12270276091 -63621.51176088299 0
-119744.81391769167 -96711.192041770642 0
-218801.10453195169 -142896.37991277874 0
284198.6757066811 -183033.48075961258 0
140557.06032138955 -188509.53075540945 0
75965.767474295571 -175480.75824027305 0
34488.356588593306 -152124.64515789662 0
654.606577134291 -112405.50298907392 0
-302854.73807054327 -56623.639303842225 0
-175480.75824027305 -75965.767474295222 0
-135467.47736181575 -93299.825532674397 0
-148025.9077774894 -111433.33938277591 0
-250280.03024277266 -130815.82656167923 0
269383.65414292575 -145003.32352906809 0
145777.79758933189 -146696.10272154649 0
93299.82553267364 -135467.47736181566 0
63621.511760882182 -112146.12270276094 0
41627.789118106652 -78000.90878140046 0
-326521.76246951596 -125224.74438764629 0
-188509.53075540956 -140557.06032138917 0
-146696.10272154646 -145777.79758933268 0
-160574.06951022841 -151720.85394069477 0
-261809.57608397101 -158549.47828212602 0
264737.00337327755 -162859.22274802759 0
151720.85394069494 -160574.06951022873 0
111433.33938277609 -148025.90777748922 0
96711.192041770671 -119744.81391769144 0
85508.167461889563 -69776.158149888361 0
-356203.45092568081 -310647.72986809374 0
-183033.4807596138 -284198.67570667929 0
-145003.32352906826 -269383.65414292645 0
-162859.22274802811 -264737.00337327732 0
-264935.94964006986 -264619.97848420544 0
264619.97848420544 -264935.94964006991 0
158549.47828212613 -261809.57608397055 0
130815.82656167922 -250280.03024277242 0
142896.37991277728 -218801.10453195026 0
194630.74153219152 -112955.84410080667 0
-194630.74153219155 112955.84410080672 0
-142896.37991277728 218801.10453195026 0
-130815.82656167918 250280.03024277248 0
-158549.47828212613 261809.57608397055 0
-264619.97848420544 264935.94964006997 0
264935.94964006986 264619.97848420532 0
162859.22274802806 264737.00337327732 0
145003.32352906824 269383.65414292639 0
183033.48075961383 284198.67570667929 0
356203.45092568069 310647.72986809362 0
-85508.167461889563 69776.158149888332 0
-96711.192041770671 119744.81391769138 0
-111433.33938277607 148025.90777748916 0
-151720.85394069488 160574.0695102287 0
-264737.00337327749 162859.2227480275 0
261809.57608397098 158549.47828212602 0
160574.06951022841 151720.85394069474 0
146696.10272154649 145777.79758933268 0
188509.53075540956 140557.06032138914 0
326521.76246951602 125224.74438764632 0
-41627.789118106637 78000.908781400503 0
-63621.511760882146 112146.12270276097 0
-93299.82553267364 135467.47736181569 0
-145777.79758933192 146696.10272154651 0
-269383.65414292575 145003.32352906812 0
250280.03024277266 130815.82656167929 0
148025.90777748937 111433.33938277591 0
135467.47736181575 93299.825532674411 0
175480.75824027305 75965.767474295193 0
302854.73807054327 56623.63930384221 0
-654.60657713429828 112405.50298907388 0
-34488.35658859332 152124.64515789659 0
-75965.767474295542 175480.75824027299 0
-140557.06032138955 188509.53075540942 0
-284198.6757066811 183033.48075961252 0
218801.10453195171 142896.37991277874 0
119744.81391769167 96711.192041770584 0
112146.12270276091 63621.51176088299 0
152124.64515789659 34488.356588593015 0
281544.31895098055 5256.4128001401878 0
76211.732983204245 232298.47847305756 0
-5256.4128001385106 281544.31895098183 0
-56623.639303847638 302854.73807054298 0
-125224.74438764052 326521.76246951602 0
-310647.72986809211 356203.45092568168 0
112955.84410080573 194630.74153218998 0
69776.158149888273 85508.167461883626 0
78000.908781400707 41627.789118113025 0
112405.50298907257 654.60657713237742 0
232298.47847306065 -76211.732983204129 0
# End: Data Text
# End: Segment
