# OOMMF: rectangular mesh v1.0
# Segment count: 1
# Begin: Segment
# Begin: Header
# Title: Oxs_TimeDriver::Magnetization
# Desc: Oxs vector field output
# Desc:  MIF source file: D:/Micromagnetic_Toolbox/refactored/microMagSim/tests/solver/core/fields/strayfield/ReferenceData/testCalculateStrayField/testCalculateStrayField.mif
# Desc:  Iteration: 0, State id: 288
# Desc:  Stage: 0, Stage iteration: 0
# Desc:  Stage simulation time: 0 s
# Desc:  Total simulation time: 0 s
# meshunit: m
# valueunit: A/m
# valuemultiplier: 1.0
# xmin: 0
# ymin: 0
# zmin: 0
# xmax: 1e-007
# ymax: 1e-007
# zmax: 2e-008
# ValueRangeMaxMag: 800000
# ValueRangeMinMag: 799200
# meshtype: rectangular
# xbase: 5e-009
# ybase: 5e-009
# zbase: 1e-008
# xstepsize: 1e-008
# ystepsize: 1e-008
# zstepsize: 2e-008
# xnodes: 10
# ynodes: 10
# znodes: 1
# End: Header
# Begin: Data Text
800000 0 0
800000 0 0
800000 0 0
800000 0 0
800000 0 0
0 800000 0
0 800000 0
0 800000 0
0 800000 0
0 800000 0
800000 0 0
800000 0 0
800000 0 0
800000 0 0
800000 0 0
0 800000 0
0 800000 0
0 800000 0
0 800000 0
0 800000 0
800000 0 0
800000 0 0
800000 0 0
800000 0 0
800000 0 0
0 800000 0
0 800000 0
0 800000 0
0 800000 0
0 800000 0
800000 0 0
800000 0 0
800000 0 0
800000 0 0
800000 0 0
0 800000 0
0 800000 0
0 800000 0
0 800000 0
0 800000 0
800000 0 0
800000 0 0
800000 0 0
800000 0 0
800000 0 0
0 800000 0
0 800000 0
0 800000 0
0 800000 0
0 800000 0
0 -800000 0
0 -800000 0
0 -800000 0
0 -800000 0
0 -800000 0
-800000 0 0
-800000 0 0
-800000 0 0
-800000 0 0
-800000 0 0
0 -800000 0
0 -800000 0
0 -800000 0
0 -800000 0
0 -800000 0
-800000 0 0
-800000 0 0
-800000 0 0
-800000 0 0
-800000 0 0
0 -800000 0
0 -800000 0
0 -800000 0
0 -800000 0
0 -800000 0
-800000 0 0
-800000 0 0
-800000 0 0
-800000 0 0
-800000 0 0
0 -800000 0
0 -800000 0
0 -800000 0
0 -800000 0
0 -800000 0
-800000 0 0
-800000 0 0
-800000 0 0
-800000 0 0
-800000 0 0
0 -800000 0
0 -800000 0
0 -800000 0
0 -800000 0
0 -800000 0
-800000 0 0
-800000 0 0
-800000 0 0
-800000 0 0
-800000 0 0
# End: Data Text
# End: Segment
