# OOMMF: rectangular mesh v1.0
# Segment count: 1
# Begin: Segment
# Begin: Header
# Title: 
# Desc: 
# meshunit: m
# valueunit: A/m
# valuemultiplier: 1.0
# xmin: 0.0
# ymin: 0.0
# zmin: 0.0
# xmax: 1.0000000000000001E-7
# ymax: 1.0000000000000001E-7
# zmax: 1.0E-8
# ValueRangeMaxMag: 
# ValueRangeMinMag: 
# meshtype: rectangular
# xbase: 1.0E-9
# ybase: 1.0E-9
# zbase: 5.0E-9
# xstepsize: 2.0E-9
# ystepsize: 2.0E-9
# zstepsize: 1.0E-8
# xnodes: 50
# ynodes: 50
# znodes: 1
# End: Header
# Begin: Data Text
565682.5984067651 -565682.576730486 -2533.819908464755
579756.4160332471 -551249.8629352441 -2467.120215772136
599450.8144889374 -529766.9443589782 -2388.6550820505727
621091.3885429513 -504222.27581759583 -2320.2687588221247
642647.8396651398 -476443.69400887005 -2271.6982437987876
663022.0248397968 -447656.9518014309 -2246.793534629737
681682.246829666 -418693.52624957723 -2246.2043435354826
698437.5953166963 -390102.26617013925 -2268.7831876234395
713294.2336811401 -362223.6727091509 -2312.3854196488205
726364.2767954959 -335245.13406367344 -2374.3382206270276
737809.1144894654 -309243.75446902425 -2451.713313746627
747805.2455770782 -284219.7311247359 -2541.481219427634
756524.6390436856 -260122.08243709992 -2640.596222040319
764124.2948670009 -236868.1515852428 -2746.0441728442665
770741.4918044669 -214358.11742641262 -2854.8738026490605
776492.4456167592 -192485.57160565685 -2964.223970572676
781472.9315355186 -171145.03810205194 -3071.3531756944244
785759.9713552732 -150237.12994485546 -3173.6732177387503
789414.0361651127 -129671.8726029846 -3268.7858818672253
792481.4334537386 -109370.58483825202 -3354.519823511034
794996.6769051854 -89266.60021143156 -3428.9643341578712
796984.7102545673 -69305.03625126883 -3490.4971929489698
798462.8953316845 -49441.77094294873 -3537.8050495314005
799442.694460028 -29641.763017444562 -3569.896316140055
799930.9893442099 -9876.84751777432 -3586.1079046939885
799930.9892448074 9876.855564425838 -3586.107915728143
799442.6941624841 29641.77103826359 -3569.896349248046
798462.8948379196 49441.77891308261 -3537.8051047762888
796984.7095675882 69305.0441473937 -3490.4972704273023
794996.6760287433 89266.60801307233 -3428.964434025527
792481.4323919174 109370.59252827572 -3354.5199460883955
789414.0349218642 129671.88016793819 -3268.7860275717208
785759.9699338845 150237.13737532432 -3173.673387256556
781472.9299379846 171145.04539313767 -3071.353369900617
776492.4438431608 192485.5787570157 -2964.2241906582167
770741.4898524877 214358.12444161274 -2854.874050058365
764124.292731575 236868.15847080864 -2746.044449384488
756524.636716188 260122.08920314058 -2640.596529779157
747805.2430451389 284219.7377834215 -2541.481560808575
737809.1117370415 309243.76103289746 -2451.713691694319
726364.2738025578 335245.14054541255 -2374.3386383414895
713294.2304237519 362223.6791206869 -2312.385880681729
698437.5917674985 390102.2725216545 -2268.783695673603
681682.2429586464 418693.5325490539 -2246.2049023987643
663022.0206160026 447656.95805418893 -2246.794147930789
642647.8350592046 476443.70021835703 -2271.698914383804
621091.3835326923 504222.28198578145 -2320.269488033886
599450.8090669019 529766.9504906656 -2388.6558683339413
579756.4102224889 551249.8690427458 -2467.121052744283
565682.5923003452 565682.5828329992 -2533.820780667527
551249.8845608796 -579756.3954709241 -2467.120219706799
565682.8669114083 -565682.846165813 -2410.733630021854
586293.0239756111 -544293.1226665771 -2342.3610737500603
609002.5583519362 -518758.7789307861 -2283.2439721473925
631665.4002119602 -490911.18314533157 -2243.3095896337104
653143.7496036399 -461950.52219756844 -2226.5208491282774
672881.125232342 -432696.20103499375 -2233.588131555751
690666.6981089993 -403700.8658441588 -2263.4133270108964
706491.6819203575 -375318.73021313635 -2313.8989916395612
720458.7461759569 -347754.97000728006 -2382.413440985565
732724.906680981 -321104.5463544467 -2466.0575525516015
743466.2862639596 -295383.3412585722 -2561.814942187525
752857.2222720267 -270552.93738523906 -2666.635533213044
761058.6809214457 -246539.99629641912 -2777.4845221469923
768212.590049079 -223251.1062212036 -2891.377023898387
774439.8369998799 -200583.9135535406 -3005.4103123048926
779840.4597748038 -178435.26237870404 -3116.7993303355074
784495.089154299 -156706.94911765252 -3222.9165403166216
788467.0492731555 -135309.574497246 -3321.3340478887917
791804.7471727431 -114164.85965754304 -3409.864232177676
794544.1177424843 -93206.69835090342 -3486.5948059522716
796710.9685956923 -72381.14824824978 -3549.9151509160197
798323.1116514144 -51645.5222309438 -3598.532575417751
799392.1906352115 -30966.722617147396 -3631.4792840538003
799925.1279285297 -10318.962268530884 -3648.1126937116624
799925.1278199797 10318.970679411017 -3648.1127047667815
799392.1903103667 30966.730998980856 -3631.479317196966
798323.1111126003 51645.53055594044 -3598.5326306953857
796710.967846559 72381.1564902803 -3549.9152283758626
794544.1167876133 93206.70648700713 -3486.5949056997893
791804.7460171804 114164.86766844336 -3409.864354416965
788467.0479218832 135309.58236772974 -3321.3341930021697
784495.0876116655 156706.95683680635 -3222.9167089048638
779840.4580438153 178435.26994051467 -3116.799523196593
774439.8350815929 200583.92095663675 -3005.410530536614
768212.5879420608 223251.11346833353 -2891.3772688501535
761058.6786214523 246540.0033933233 -2777.4847954707093
752857.2197713373 270552.9443408173 -2666.635836913471
743466.2835511744 295383.34808361036 -2561.8152785150864
732724.9037412184 321104.55305980385 -2466.057924248289
720458.7429907306 347754.97660343983 -2382.4138510000735
706491.6784679239 375318.73670913663 -2313.8994432432905
690666.6943651091 403700.8722465633 -2263.4138235948267
672881.1211712076 432696.2073476062 -2233.588676553437
653143.7451999898 461950.5284209364 -2226.5214457777543
631665.3954439322 490911.1892774767 -2243.310240331507
609002.5532069292 518758.78496771737 -2283.2446778106723
586293.0184583013 544293.1286063602 -2342.3618324564145
565682.8610597369 565682.8520140537 -2410.734435071905
551249.8784800023 579756.4012492478 -2467.121055817991
529766.9659365634 -599450.7954196277 -2388.655090964668
544293.1436083252 -586293.0045340325 -2342.3610789345717
565683.1219169097 -565683.1020038855 -2287.7249835715547
589638.7928842104 -540667.2380462963 -2243.1293856737834
613794.2456153126 -513080.60400287755 -2217.6216024628834
636878.4702800297 -484129.0202088489 -2214.923337160414
658251.8698392719 -454642.14228703367 -2235.6899961806566
677647.3089513396 -425192.81700347934 -2278.8241822098576
695017.2053441405 -396163.60027428746 -2342.241092497268
710438.9018332822 -367791.6452505427 -2423.3129841028795
724054.8023811902 -340203.317388851 -2519.1241248114948
736034.588081573 -313442.47644700116 -2626.615000408314
746551.9311016374 -287493.81203178247 -2742.6650998789296
755770.8145639611 -262301.87289059156 -2864.145843790749
763838.1730684044 -237786.28521965485 -2987.9633463820414
770880.6226493067 -213853.65713068304 -3111.1019992375595
777003.7741252284 -190406.6641324931 -3230.673163125663
782293.1274058556 -167350.77140688626 -3343.968164606964
786815.8885126855 -144598.98116416024 -3448.5113135933066
790623.2784768052 -122074.91556016306 -3542.106938979526
793753.0462632489 -99714.47401189049 -3622.874596857786
796231.9821798152 -77466.24975924386 -3689.268523821908
798078.2747213106 -55290.860137711265 -3740.080625911613
799303.5793221695 -33159.33897342117 -3774.4299720447493
799914.6851459515 -11050.753771216478 -3791.7448412675567
799914.6850213651 11050.762785585848 -3791.7448525719046
799303.5789494824 33159.34795316173 -3774.4300059479065
798078.2741036197 55290.86904975461 -3740.0806823467647
796231.981322003 77466.25857245407 -3689.268602726165
793753.0451714885 99714.48269890537 -3622.8746981734976
790623.2771579933 122074.92409791093 -3542.1070627800505
786815.8869737966 144598.98953432386 -3448.5114600418683
782293.1256532937 167350.77959597422 -3343.9683341415985
777003.7721640052 190406.67213249442 -3230.6733563446974
770880.6204824178 213853.66493852178 -3111.1022170634706
763838.1706962975 237786.2928364859 -2987.963589960449
755770.8119842205 262301.8803206454 -2864.1461146350666
746551.9283084951 287493.8192820375 -2742.665399727351
736034.5850658017 313442.4835259489 -2626.615331266209
724054.7991305296 340203.3243045357 -2519.1244890709086
710438.8983326522 367791.65200984216 -2423.313384351674
695017.2015763784 396163.60688173736 -2342.241531543651
677647.304898244 425192.8234604886 -2278.824662923077
658251.8654829931 454642.1485916719 -2235.6905214455196
636878.4656055529 484129.0263555691 -2214.9239095841644
613794.2406134547 513080.6099838745 -2217.622223857643
589638.7875574026 540667.243852803 -2243.130056398178
565683.1162856532 565683.1076322392 -2287.725701352009
544293.1377221209 586293.009995541 -2342.361837280661
529766.9598908764 599450.8007593981 -2388.6558761571478
504222.2973271799 -621091.3710807154 -2320.268772783379
518758.8000246116 -609002.5403838153 -2283.243982652767
540667.2584071511 -589638.7742143736 -2243.1293912011215
565683.265268563 -565683.2458665131 -2215.5678781511133
591301.2822436526 -538848.6964111115 -2208.165088543227
616102.3871743426 -510306.6749224475 -2223.971149042011
639328.0495871626 -480889.30362653825 -2263.3313186119094
660621.207658067 -451191.9928606206 -2324.988356704468
679868.2940007019 -421631.72363514954 -2406.7482269492316
697100.241821043 -392485.63468827767 -2505.8763703456907
712428.9153805488 -363920.56776912074 -2619.3289781248213
726005.8888169881 -336017.73834830377 -2743.8874513923374
737995.9503944748 -308793.9514255579 -2876.241357406595
748560.5624869944 -282219.78282977897 -3013.0497285980973
757848.1066083366 -256234.88933896896 -3150.999144059592
765988.730573595 -230760.61434638366 -3286.8679213052
773092.2782333366 -205710.11000582908 -3417.5981886486998
779248.247752188 -180996.22687902057 -3540.3715486630404
784527.0521960901 -156537.4150242987 -3652.679841407699
788982.080459128 -132261.8476862732 -3752.380710851704
792652.2018292586 -108109.93836640334 -3837.728708602022
795564.4446022996 -84035.39071817705 -3907.3765467649955
797736.6272331671 -60004.90997318145 -3960.3471768651643
799179.7471818309 -35996.71935942405 -3995.98420214175
799899.9532098157 -11998.062827026939 -4013.8937870394093
799899.9530627703 11998.072626385434 -4013.8937990234185
799179.7467421894 35996.7291161237 -3995.9842380143073
797736.6265052534 60004.91964651447 -3960.3472364373215
795564.4435929342 84035.40026999786 -3907.37662970003
792652.2005471224 108109.94776314612 -3837.7288145710904
788982.0789140393 132261.85689954547 -3752.380839562957
784527.0503981856 156537.42403142215 -3652.6799927424395
779248.2457111313 180996.23566303667 -3540.3717227313796
773092.2759573926 205710.11855592477 -3417.5983857100487
765988.7280689635 230760.62265713466 -3286.868142009855
757848.1038786252 256234.8974094303 -3150.9993892840125
748560.5595329809 282219.7906621198 -3013.049999575535
737995.9472137529 308793.95902448345 -2876.241655573535
726005.8854041286 336017.7457195183 -2743.8877784195947
712428.9117278048 363920.574917337 -2619.3293360094663
697100.237918957 392485.6416163416 -2505.8767611937787
679868.289839233 421631.73034295905 -2406.7486530653823
660621.2032279263 451191.9993447049 -2324.988820342062
639328.0448815258 480889.30988017336 -2263.3318219846465
616102.3821913474 510306.68093613134 -2223.97169412199
591301.2769891338 538848.7021747057 -2208.1656765144976
565683.2597602945 565683.2513723114 -2215.568508929957
540667.2526779637 589638.779465179 -2243.1300624750074
518758.79412585194 609002.5454058329 -2283.244688642513
504222.2913319882 621091.3759450851 -2320.269501765704
476443.71540766343 -642647.8238005217 -2271.698262354565
490911.2043228653 -631665.3837533682 -2243.3096050641125
513080.62473483814 -613794.2282850896 -2217.6216132512313
538848.7164898702 -591301.2639459998 -2208.1650940204904
565683.2543281864 -565683.2350753204 -2221.1094957703663
592062.8415695252 -538011.6079290091 -2258.620433238253
617113.2615235017 -509083.33081933117 -2320.502902730447
640372.9026167655 -479496.3617317731 -2405.1362063498286
661642.1599673694 -449692.5081514418 -2510.033103252641
680885.4118933361 -419985.8658647795 -2632.1748903430866
698165.9059552979 -390585.08006576163 -2768.2109097602065
713601.8870617102 -361612.8482211442 -2914.5811633859926
727337.014373231 -333123.78680704074 -3067.602642402578
739520.7249009543 -305120.8058910568 -3223.5468600516233
750295.6579308109 -277569.8288835965 -3378.725159338473
759790.1215355111 -250412.68582530832 -3529.5884758069847
768114.149256012 -223578.09366204913 -3672.839113929966
775358.0941703209 -196990.71967441624 -3805.544208594283
781592.9961593789 -170578.37168190652 -3925.234891650211
786872.1619751771 -144277.3718427102 -4029.973036050218
791233.5322278731 -118036.16609973554 -4118.369905542506
794702.4889791204 -91817.21894186405 -4189.548444962706
797294.7986216997 -65597.26059403701 -4243.052361391017
799019.4056087065 -39366.000967946165 -4278.718090857392
799880.8120523348 -13123.501211875484 -4296.536563246728
799880.811876084 13123.511950053948 -4296.536576530582
799019.4050820814 39366.01165264221 -4278.718130547068
797294.7977508677 65597.2711742245 -4243.052426988325
794702.487773801 91817.22937008293 -4189.548535740517
791233.5307005085 118036.17633412492 -4118.370020637939
786872.1601399543 144277.38184793235 -4029.9731746433245
781592.9940311676 170578.38142969276 -3925.235053020058
775358.0917636802 196990.7291434366 -3805.544392289609
768114.1465841377 223578.10283802988 -3672.8393197964756
759790.1186094953 250412.6947000676 -3529.5887040223847
750295.6547591265 277569.8374538823 -3378.7254104107183
739520.7214893075 305120.81415695563 -3223.547134879394
727337.0107244251 333123.79477102385 -3067.6029420916484
713601.8831761307 361612.85588626773 -2914.581489222706
698165.9018318519 390585.0874338633 -2768.211263310919
680885.407530485 419985.8729354789 -2632.175273256075
661642.1553645323 449692.5149213832 -2510.033517277471
640372.8977758327 479496.36819465325 -2405.1366531667154
617113.2564504143 509083.3369667587 -2320.503383934145
592062.8362764724 538011.6137516571 -2258.6209502070674
565683.2488351127 565683.240566221 -2221.110049241724
538848.7108265533 591301.269104739 -2208.1656836769916
513080.6189399714 613794.2331268596 -2217.622237021239
490911.19844122167 631665.388322084 -2243.3102581102203
476443.7094851771 642647.8281889334 -2271.698934972348
447656.9730396413 -663022.0105001769 -2246.793557344826
461950.5433849835 -653143.7346182982 -2226.5208690616237
484129.0412174138 -636878.4543101207 -2214.923352871737
510306.69558286504 -616102.370061646 -2223.971159826933
538011.6280642874 -592062.8232724366 -2258.6204387433986
565683.0556886756 -565683.0362402794 -2320.1329059459094
592361.65461773 -537681.9444882347 -2407.6357481863038
617488.3309467345 -508627.38423769234 -2518.957748527187
640770.9175450312 -478963.0495789232 -2651.1066664511322
662094.034542835 -449025.2179419473 -2800.5490493910283
681456.6780821198 -419056.09920117684 -2963.379755556251
698928.170571878 -389216.6253092496 -3135.43680002113
714616.8227110987 -359599.53379367554 -3312.399985705122
728647.7864400471 -330242.67428386834 -3489.8994051816812
741147.7607241366 -301142.11670407705 -3663.648534710634
752234.8882635372 -272264.59006862156 -3829.6049286157677
762012.6040920025 -243558.858919235 -3984.149455679449
770566.4912125175 -214965.74859598427 -4124.263691549725
777963.4152273115 -186426.61240331756 -4247.676503802482
784252.3661564658 -157890.08209832135 -4352.947618569959
789466.536696788 -129316.9696009334 -4439.460463900006
793626.218282193 -100683.21514238343 -4507.310028993691
796742.1120667132 -71980.82915653406 -4557.09264893975
798818.6512441182 -43216.86856037681 -4589.629218475816
799856.9382462674 -14410.624639446685 -4605.67441399059
799856.9380331759 14410.63646206565 -4605.674429476351
798818.6506079055 43216.88031520023 -4589.629264647731
796742.1110162606 71980.84077898806 -4557.092724824494
793626.216831496 100683.22657270632 -4507.310133142455
789466.5348637918 129316.98078669547 -4439.460594574082
784252.3639617405 157890.09299540834 -4352.947773997471
777963.4126926425 186426.62297649294 -4247.676682349317
770566.488359612 214965.7588186686 -4124.263891918214
762012.6009412243 243558.86877332532 -3984.1496769683627
752234.8848330826 272264.59954316093 -3829.605170426436
741147.7570295136 301142.1257938064 -3663.6487970692865
728647.7824940861 330242.68298724625 -3489.899688562312
714616.8185239881 359599.5421117311 -3312.400290868723
698928.1661519553 389216.63324359845 -3135.437127893816
681456.6734371627 419056.1067521815 -2963.380107340803
662094.0296812396 449025.2251080874 -2800.5494263155756
640770.9124773695 478963.0563563579 -2651.1070698060294
617488.3256871145 508627.39062088844 -2518.9581795177633
592361.6491849831 537681.9504714079 -2407.636207941972
565683.0501076549 565683.0418192928 -2320.133395435411
538011.6223658206 592062.8284486907 -2258.620958433127
510306.6898034572 616102.3748466434 -2223.971709392382
484129.03539501614 636878.4587340605 -2214.9239306904865
461950.5375521639 653143.7387416377 -2226.521471305606
447656.96721440775 663022.0144311413 -2246.79417616494
418693.5472818582 -681682.2339114189 -2246.2043700249715
432696.2221642576 -672881.1116450889 -2233.5881555890087
454642.163478056 -658251.855202963 -2235.690016513265
480889.32476028014 -639328.0336907433 -2263.331334524881
509083.3517336513 -617113.2442703355 -2320.502913779477
537681.9650087771 -592361.6359913734 -2407.635753943486
565682.6214651297 -565682.6015054587 -2523.1183791424437
592451.8635835554 -537581.3352770901 -2664.0754630807146
617612.734794466 -508474.6985705506 -2826.788511408234
640967.2518162624 -478698.1726005063 -3006.9333288592375
662440.8762498192 -448510.6991051066 -3199.728366646032
682041.4763196647 -418100.30401957454 -3400.052710104671
699828.4541304307 -387591.481137127 -3602.5739881224495
715889.483663195 -357054.3272899765 -3801.913195521199
730323.2431469937 -326514.95767740224 -3992.860150486062
743227.0129384914 -295966.57415543584 -4170.637987446748
754688.2771785954 -265380.5663871355 -4331.197668850393
764779.6352715819 -234717.09590446763 -4471.505791029266
773556.4476436448 -203934.6863061217 -4589.774522655046
781056.7205723298 -172998.3948599736 -4685.576236722295
787302.7735691245 -141886.17659015665 -4759.792326422539
792304.227520614 -110593.09609508907 -4814.369020483237
796061.8112359985 -79133.12731945746 -4851.891621226355
798571.4315879267 -47538.43374898831 -4875.035210376014
799827.9230626142 -15856.24727550365 -4885.9913715799485
799827.9228036721 15856.260331288391 -4885.991390665839
798571.4308155343 47538.446718159306 -4875.035267057194
796061.8099630309 79133.14011955712 -4851.891713728522
792304.2257673185 110593.10865046926 -4814.369146167128
787302.7713614707 141886.1888348392 -4759.792482070262
781056.7179401376 172998.4067389117 -4685.57641903208
773556.4446186274 203934.69777585714 -4589.774728486978
764779.6318856179 234717.10693264738 -4471.50601778373
754688.2734621601 265380.57695191033 -4331.197914541236
743227.0089196608 295966.58424375363 -4170.638250852673
730323.2388509931 326514.9672829312 -3992.8604310213345
715889.4791124414 357054.33641101077 -3801.913493242881
699828.4493448315 387591.48977499077 -3602.5743034627035
682041.4713176392 418100.3121765993 -3400.0530437338393
662440.8710497498 448510.7067829821 -3199.728719525961
640967.2464378239 478698.1797997837 -3006.933701982065
617612.729259955 508474.7052907859 -2826.788905792331
592451.8579188824 537581.3415178879 -2664.0758796229748
565682.6157002676 565682.6072683602 -2523.118818721241
537681.9591780378 592361.6412820058 -2407.6362173396305
509083.3458740609 617113.2491023307 -2320.5034014143557
480889.31890944537 639328.0380898082 -2263.3318462984403
454642.15766778897 658251.8592141888 -2235.6905513333118
432696.2164116677 672881.1153424496 -2233.5887106569917
418693.5415783209 681682.2374126925 -2246.2049390711663
390102.28696072695 -698437.5837043149 -2268.7832176675674
403700.886858318 -690666.6858259432 -2263.413354957057
425192.8382919463 -677647.2955937126 -2278.824207013865
451192.01436041837 -660621.1929740306 -2324.9883777459013
479496.3833099216 -640372.8864594854 -2405.1362231010444
508627.40572505957 -617488.313247463 -2518.9577604098854
537581.3564917711 -592451.8443336645 -2664.075469424352
565681.8788870536 -565681.8581241824 -2836.774221786946
592486.2984777777 -537541.4317274314 -3032.374074044446
617721.9724327349 -508339.48493466555 -3245.4322008583085
641240.1408654654 -478329.4279972554 -3469.878190444532
662980.593179364 -447708.665720706 -3699.1493784094123
682943.6404077475 -416620.4119138692 -3926.3727957731767
701167.5885895999 -385158.1945043764 -4144.62514280941
717710.7706747374 -353372.82120527106 -4347.285463593293
732637.5940281826 -321281.2611129951 -4528.47372073428
746008.2287678912 -288876.7679246104 -4683.541824773242
757871.6286039328 -256139.5376420245 -4809.554423487782
768261.5985901178 -223047.19349482917 -4905.670783585001
777195.615889257 -189584.38933136384 -4973.325283165445
784676.0611713685 -155750.81906556129 -5016.112537988776
790693.4194911437 -121566.94291185965 -5039.321826107596
795230.8661367887 -87076.83838147437 -5049.134660442037
798269.4966203845 -52347.80062110686 -5051.587430807798
799793.3470406565 -17466.66954601119 -5051.483393496857
799793.3467249135 17466.68399659504 -5051.483418293554
798269.4956796115 52347.814960197626 -5051.587504130307
795230.8645897285 87076.85250314511 -5049.134779182903
790693.4173671955 121566.9567197919 -5039.321985600167
784676.0585081525 155750.83247663273 -5016.112732628963
777195.6127298606 189584.40227734135 -4973.325507120202
768261.5949803285 223047.2059229027 -4905.671031362194
757871.6245898224 256139.5495140547 -4809.554690467474
746008.2243937949 288876.77921588894 -4683.542107391658
732637.5893354809 321281.2718098829 -4528.474016629688
717710.7657013623 353372.831302557 -4347.285771460277
701167.5833701433 385158.2040027841 -4144.625462297087
682943.6349739936 416620.42081800906 -3926.373127135078
662980.5875614389 447708.6740370589 -3699.149722271033
641240.1350933557 478329.4357326535 -3469.8785477570937
617721.9665375265 508339.4920960083 -3245.432572620797
592486.292492667 537541.438322126 -3032.374461317102
565681.8728477156 565681.864161496 -2836.774625453406
537581.3504360797 592451.8498266091 -2664.0758903753826
508627.3996923833 617488.3182148094 -2518.95819949213
479496.37733838387 640372.890929115 -2405.136680924364
451192.00848359463 660621.196986114 -2324.98885458379
425192.83253154886 677647.2992064337 -2278.824702424767
403700.8812146849 690666.6891230191 -2263.4138670521206
390102.28140097 698437.5868079355 -2268.783741567474
362223.69323287817 -713294.2232587126 -2312.3854530878307
375318.7510676155 -706491.670841458 -2313.89902335326
396163.6215877123 -695017.1931952732 -2342.241121696368
421631.745402114 -679868.280501461 -2406.748253112111
449692.5302777379 -661642.1449288982 -2510.0331258272295
478963.07191542373 -640770.9008488813 -2651.106684761685
508474.72093728813 -617612.7163800824 -2826.7885246002324
537541.4539309202 -592486.278333317 -3032.374081089905
565680.733455861 -565680.7116102267 -3261.9486487171025
592562.1579650134 -537454.9088532757 -3508.5463319402893
617971.0079930093 -508033.13232470467 -3764.2715700472813
641779.9813794994 -477600.55629860645 -4020.4631314030134
663925.7852067471 -446300.72401799785 -4267.959537657739
684389.0939883371 -414235.85124351864 -4497.507574254875
703177.3450846025 -381470.2193120064 -4700.333798743598
720310.2980435384 -348036.447312538 -4868.867886474827
735808.4656470909 -313944.14507785795 -4997.564747614244
749684.569038462 -279190.2625612437 -5083.72271071643
761938.1458219651 -243770.31002914105 -5128.146807788837
772553.3652400038 -207689.49119838432 -5135.474866219643
781499.9642977439 -170972.66715159954 -5113.989606309766
788736.9930929979 -133671.99455311417 -5074.800371278516
794218.7485460612 -95871.13505874845 -5030.399633788776
797901.9300904317 -57685.19961992374 -4992.765042906618
799752.766595544 -19256.11797680746 -4971.3421966944825
799752.76620946 19256.134003077685 -4971.3422304675705
797901.9289416256 57685.21550160547 -4992.765142349691
794218.7466619208 95871.15065902186 -5030.399793572432
788736.9905163196 133672.0097488558 -5074.800583362769
781499.9610830016 170972.681838261 -5113.989861130597
772553.3614492101 207689.50529208258 -5135.475153879866
761938.1415206029 243770.32346709992 -5128.147119112765
749684.5642920155 279190.2753004909 -5083.723037991158
735808.4605183917 313944.1570929066 -4997.565084997351
720310.2925911776 348036.458592157 -4868.868230083198
703177.3393623368 381470.2298557735 -4700.334146461698
684389.088045286 414235.8610586513 -4497.507925456862
663925.7790881231 446300.73311678926 -4267.959892667543
641779.9751278139 477600.56469633564 -4020.4634911773055
617971.0016496045 508033.14003810496 -3764.271935929255
592562.1515711003 537454.9159003429 -3508.5467053758243
565680.7270531602 565680.7180107224 -3261.949031147803
537541.4475614012 592486.2841101423 -3032.3744737848274
508474.7146423918 617612.7215607611 -2826.7889287920943
478963.06573464995 640770.9054671575 -2651.107101662397
449692.52424537175 661642.14902723 -2510.033556456443
421631.7395436164 679868.2841331309 -2406.7486982473365
396163.6159123111 695017.1964287332 -2342.241581569826
375318.7455588696 706491.6737663895 -2313.8994969489268
362223.68783656816 713294.2259974885 -2312.385936688543
335245.1543042343 -726364.2674535756 -2374.338257392181
347754.99066844594 -720458.7362029948 -2382.4134764249584
367791.66652892437 -710438.8908174261 -2423.3130176879463
392485.6566345748 -697100.2294645915 -2505.876401660196
419985.8884291239 -680885.3979750159 -2632.1749188754843
449025.2410064066 -662094.0189006546 -2800.5490743790183
478698.19600185106 -640967.2343391717 -3006.933349243134
508339.5084811924 -617721.9530556082 -3245.4322153829166
537454.9323376905 -592562.1366645627 -3508.546339524342
565679.0975892792 -565679.0743800419 -3787.2627473973857
592747.2882556629 -537246.7571208385 -4071.145870722079
618474.0666274973 -507415.9232707976 -4348.530842741303
642735.1602352766 -476309.02811685903 -4606.900444607345
665451.0179013856 -444017.5446655994 -4833.508367882226
686571.5724726259 -410602.37794246833 -5016.283530286815
706062.3636201175 -376097.6835886103 -5145.005194804169
723892.4843693573 -340517.9864839983 -5212.672485722496
740024.9499708967 -303868.1577601206 -5216.907133769769
754410.1143762317 -266155.48460028844 -5161.137861621488
766982.6893823051 -227402.7235720639 -5055.244790711308
777662.7240056166 -187660.6704114166 -4915.330395998061
786360.5327079929 -147018.47649490705 -4762.370031609214
792985.0070673419 -105609.83340137698 -4619.702949421844
797454.0725146481 -63613.40605392207 -4509.634133853899
799705.4331040676 -21246.64712900241 -4449.747140150496
799705.4326306278 21246.664938843267 -4449.747188010429
797454.0711082263 63613.423674794954 -4509.634274222108
792985.004768133 105609.8506554936 -4619.703173167652
786360.5295784334 147018.49322453307 -4762.370325127815
777662.720124529 187660.6864854843 -4915.3307432243
766982.6848384902 227402.7388888692 -5055.245175248184
754410.109262376 266155.4990874766 -5161.138268469301
740024.9443785102 303868.17137237504 -5216.9075506072
723892.4783851862 340517.9991990943 -5212.672903450927
706062.357324121 376097.69540267455 -5145.005607597553
686571.5659372425 410602.3888653889 -5016.28393520483
665451.0111919176 444017.5547167921 -4833.508764324398
642735.1534107574 476309.0373221577 -4606.900833493611
618474.0597421331 507415.93165987753 -4348.531225917906
592747.2813603114 537246.7647256394 -4071.1462505550967
565679.0907323747 565679.0812344095 -3787.2631263466114
537454.9255656266 592562.1428045843 -3508.546719984133
508339.50183776644 617721.9585206389 -3245.4325994699066
478698.1895271608 640967.2391728833 -3006.9337388985577
449025.23473525955 662094.0231520013 -2800.5494714861934
419985.8823878012 680885.4016998734 -2632.1753251219375
392485.6508375187 697100.2327269876 -2505.8768184602077
367791.66097166564 710438.8936929384 -2423.3134459438056
347754.98531868483 720458.7387837935 -2382.413915948547
335245.149089633 726364.2698588509 -2374.338705463709
309243.7744164976 -737809.1061285897 -2451.713353909293
321104.566797237 -732724.8977221347 -2466.0575918011345
340203.3385830741 -724054.7924227711 -2519.1241628666644
363920.5898182536 -712428.9041173491 -2619.3290147306448
390585.1029665208 -698165.893143456 -2768.2109443976433
419056.1228744735 -681456.6635242846 -2963.379787380601
448510.7234165231 -662440.8597894526 -3199.728394379033
478329.4527718144 -641240.122384904 -3469.878212591387
508033.1573585226 -617970.987412648 -3764.2715852231026
537246.7821905685 -592747.2655332278 -4071.1458781486654
565676.9722687769 -565676.947398306 -4376.554234061614
593096.1811996304 -536856.74220296 -4664.568322996566
619329.3456200369 -506366.4454326014 -4917.78342440053
644241.1954486624 -474264.7845018605 -5118.2290181489825
667723.5190733311 -440587.96244576824 -5248.7545392188495
689682.4930142573 -405351.7273885687 -5294.896858522998
710026.6938532492 -368557.4061199685 -5247.133497915136
728656.7424722036 -330201.92028194986 -5103.282464229347
745457.734602636 -290291.3067438978 -4870.641644202093
760295.6719518179 -248856.6472910801 -4567.308876872412
773018.9479229443 -205970.5813589517 -4222.057171522166
783465.4517007298 -161761.83641446065 -3872.243689723596
791474.962367391 -116424.71122350085 -3559.573297656989
796905.2800244248 -70220.54517925259 -3324.1094930340005
799649.2799502286 -23469.224454880874 -3197.589493235606