# OOMMF: rectangular mesh v1.0
# Segment count: 1
# Begin: Segment
# Begin: Header
# Title: Oxs_RKEvolve::Total field
# Desc: Oxs vector field output
# Desc:  MIF source file: D:/Micromagnetic_Toolbox/refactored/microMagSim/tests/solver/core/fields/austausch/ReferenceData/testCalculateExchangeField/testCalculateExchangeField.mif
# Desc:  Iteration: 0, State id: 839
# Desc:  Stage: 0, Stage iteration: 0
# Desc:  Stage simulation time: 0 s
# Desc:  Total simulation time: 0 s
# meshunit: m
# valueunit: A/m
# valuemultiplier: 1.0
# xmin: 0
# ymin: 0
# zmin: 0
# xmax: 3e-008
# ymax: 3e-008
# zmax: 3e-009
# ValueRangeMaxMag: 5747261.833873999
# ValueRangeMinMag: 4059863.888170951
# meshtype: rectangular
# xbase: 1.5e-009
# ybase: 1.5e-009
# zbase: 1.5e-009
# xstepsize: 3e-009
# ystepsize: 3e-009
# zstepsize: 3e-009
# xnodes: 10
# ynodes: 10
# znodes: 1
# End: Header
# Begin: Data Text
0 0 0
0 0 0
0 0 0
0 0 0
-2873630.9169369997 2873630.9169369997 0
2873630.9169369997 -2873630.9169369997 0
0 0 0
0 0 0
0 0 0
0 0 0
0 0 0
0 0 0
0 0 0
0 0 0
-2873630.9169369997 2873630.9169369997 0
2873630.9169369997 -2873630.9169369997 0
0 0 0
0 0 0
0 0 0
0 0 0
0 0 0
0 0 0
0 0 0
0 0 0
-2873630.9169369997 2873630.9169369997 0
2873630.9169369997 -2873630.9169369997 0
0 0 0
0 0 0
0 0 0
0 0 0
0 0 0
0 0 0
0 0 0
0 0 0
-2873630.9169369997 2873630.9169369997 0
2873630.9169369997 -2873630.9169369997 0
0 0 0
0 0 0
0 0 0
0 0 0
-2873630.9169369997 -2873630.9169369997 0
-2873630.9169369997 -2873630.9169369997 0
-2873630.9169369997 -2873630.9169369997 0
-2873630.9169369997 -2873630.9169369997 0
-5747261.8338739993 0 0
0 -5747261.8338739993 0
-2873630.9169369997 -2873630.9169369997 0
-2873630.9169369997 -2873630.9169369997 0
-2873630.9169369997 -2873630.9169369997 0
-2873630.9169369997 -2873630.9169369997 0
2873630.9169369997 2873630.9169369997 0
2873630.9169369997 2873630.9169369997 0
2873630.9169369997 2873630.9169369997 0
2873630.9169369997 2873630.9169369997 0
0 5747261.8338739993 0
5747261.8338739993 0 0
2873630.9169369997 2873630.9169369997 0
2873630.9169369997 2873630.9169369997 0
2873630.9169369997 2873630.9169369997 0
2873630.9169369997 2873630.9169369997 0
0 0 0
0 0 0
0 0 0
0 0 0
-2873630.9169369997 2873630.9169369997 0
2873630.9169369997 -2873630.9169369997 0
0 0 0
0 0 0
0 0 0
0 0 0
0 0 0
0 0 0
0 0 0
0 0 0
-2873630.9169369997 2873630.9169369997 0
2873630.9169369997 -2873630.9169369997 0
0 0 0
0 0 0
0 0 0
0 0 0
0 0 0
0 0 0
0 0 0
0 0 0
-2873630.9169369997 2873630.9169369997 0
2873630.9169369997 -2873630.9169369997 0
0 0 0
0 0 0
0 0 0
0 0 0
0 0 0
0 0 0
0 0 0
0 0 0
-2873630.9169369997 2873630.9169369997 0
2873630.9169369997 -2873630.9169369997 0
0 0 0
0 0 0
0 0 0
0 0 0
# End: Data Text
# End: Segment
